/*--------------------------------*- C++ -*----------------------------------*\
  =========                 |
  \\      /  F ield         | OpenFOAM: The Open Source CFD Toolbox
   \\    /   O peration     | Website:  https://openfoam.org
    \\  /    A nd           | Version:  9
     \\/     M anipulation  |
\*---------------------------------------------------------------------------*/
FoamFile
{
    format      ascii;
    class       volScalarField;
    location    "0";
    object      Co;
}
// * * * * * * * * * * * * * * * * * * * * * * * * * * * * * * * * * * * * * //

dimensions      [0 0 0 0 0 0 0];

internalField   nonuniform List<scalar> 
5625
(
52063.15
52063.15
52063.15
52063.15
52063.15
52063.15
52063.15
52063.15
52063.15
52063.15
52063.15
52063.15
52063.15
52063.15
52063.15
52063.15
52063.15
52063.15
52063.15
52063.15
52063.15
52063.15
52063.15
52063.15
52063.15
52063.15
52063.15
52063.15
52063.15
52063.15
52063.15
52063.15
52063.15
52063.15
52063.15
52063.15
52063.15
52063.15
52063.15
52063.15
52063.15
52063.15
52063.15
52063.15
52063.15
52063.15
52063.15
52063.15
52063.15
52063.15
52063.15
52063.15
52063.15
52063.15
52063.15
52063.15
52063.15
52063.15
52063.15
52063.15
52063.15
52063.15
52063.15
52063.15
52063.15
52063.15
52063.15
52063.15
52063.15
52063.15
52063.15
52063.15
52063.15
52063.15
52063.15
52063.15
52063.15
52063.15
52063.15
52063.15
52063.15
52063.15
52063.15
52063.15
52063.15
52063.15
52063.15
52063.15
52063.15
52063.15
52063.15
52063.15
52063.15
52063.15
52063.15
52063.15
52063.15
52063.15
52063.15
52063.15
52063.15
52063.15
52063.15
52063.15
52063.15
52063.15
52063.15
52063.15
52063.15
52063.15
52063.15
52063.15
52063.15
52063.15
52063.15
52063.15
52063.15
52063.15
52063.15
52063.15
52063.15
52063.15
52063.15
52063.15
52063.15
52063.15
52063.15
52063.15
52063.15
52063.15
52063.15
52063.15
52063.15
52063.15
52063.15
52063.15
52063.15
52063.15
52063.15
52063.15
52063.15
52063.15
52063.15
52063.15
52063.15
52063.15
52063.15
52063.15
52063.15
52063.15
52063.15
52063.15
52063.15
52063.15
52063.15
52063.15
52063.15
52063.15
52063.15
52063.15
52063.15
52063.15
52063.15
52063.15
52063.15
52063.15
52063.15
52063.15
52063.15
52063.15
52063.15
52063.15
52063.15
52063.15
52063.15
52063.15
52063.15
52063.15
52063.15
52063.15
52063.15
52063.15
52063.15
52063.15
52063.15
52063.15
52063.15
52063.15
52063.15
52063.15
52063.15
52063.15
52063.15
52063.15
52063.15
52063.15
52063.15
52063.15
52063.15
52063.15
52063.15
52063.15
52063.15
52063.15
52063.15
52063.15
52063.15
52063.15
52063.15
52063.15
52063.15
52063.15
52063.15
52063.15
52063.15
52063.15
52063.15
52063.15
52063.15
52063.15
52063.15
52063.15
52063.15
52063.15
52063.15
52063.15
52063.15
52063.15
52063.15
52063.15
52063.15
52063.15
52063.15
52063.15
52063.15
52063.15
52063.15
52063.15
52063.15
52063.15
52063.15
52063.15
52063.15
52063.15
52063.15
52063.15
52063.15
52063.15
52063.15
52063.15
52063.15
52063.15
52063.15
52063.15
52063.15
52063.15
52063.15
52063.15
52063.15
52063.15
52063.15
52063.15
52063.15
52063.15
52063.15
52063.15
52063.15
52063.15
52063.15
52063.15
52063.15
52063.15
52063.15
52063.15
52063.15
52063.15
52063.15
52063.15
52063.15
52063.15
52063.15
52063.15
52063.15
52063.15
52063.15
52063.15
52063.15
52063.15
52063.15
52063.15
52063.15
52063.15
52063.15
52063.15
52063.15
52063.15
52063.15
52063.15
52063.15
52063.15
52063.15
52063.15
52063.15
52063.15
52063.15
52063.15
52063.15
52063.15
52063.15
52063.15
52063.15
52063.15
52063.15
52063.15
52063.15
52063.15
52063.15
52063.15
52063.15
52063.15
52063.15
52063.15
52063.15
52063.15
52063.15
52063.15
61435.04585
52063.15
52063.15
52063.15
52063.15
52063.15
52063.15
52063.15
52063.15
52063.15
52063.15
52063.15
52063.15
52063.15
52063.15
52063.15
52063.15
52063.15
52063.15
52063.15
52063.15
52063.15
52063.15
52063.15
52063.15
52063.15
70680.29447
61480.86436
52063.15
52063.15
52063.15
52063.15
52063.15
52063.15
52063.15
52063.15
52063.15
52063.15
52063.15
52063.15
52063.15
52063.15
52063.15
52063.15
52063.15
52063.15
52063.15
52063.15
52063.15
52063.15
52063.15
52063.15
52063.15
70427
70771.31229
61527.13305
52063.15
52063.15
52063.15
52063.15
52063.15
52063.15
52063.15
52063.15
52063.15
52063.15
52063.15
52063.15
52063.15
52063.15
52063.15
52063.15
52063.15
52063.15
52063.15
52063.15
52063.15
52063.15
52063.15
52063.15
52063.15
70173.7055
70516.77946
70863.22444
61573.85862
52063.15
52063.15
52063.15
52063.15
52063.15
52063.15
52063.15
52063.15
52063.15
52063.15
52063.15
52063.15
52063.15
52063.15
52063.15
52063.15
52063.15
52063.15
52063.15
52063.15
52063.15
52063.15
52063.15
52063.15
52063.15
69920.41105
70262.24666
70607.44111
70956.04416
61621.04789
52063.15
52063.15
52063.15
52063.15
52063.15
52063.15
52063.15
52063.15
52063.15
52063.15
52063.15
52063.15
52063.15
52063.15
52063.15
52063.15
52063.15
52063.15
52063.15
52063.15
52063.15
52063.15
52063.15
52063.15
52063.15
69667.1166
70007.71375
70351.65778
70698.99799
71049.78498
61668.70774
52063.15
52063.15
52063.15
52063.15
52063.15
52063.15
52063.15
52063.15
52063.15
52063.15
52063.15
52063.15
52063.15
52063.15
52063.15
52063.15
52063.15
52063.15
52063.15
52063.15
52063.15
52063.15
52063.15
52063.15
52063.15
69413.82203
69753.18092
70095.87452
70441.95178
70791.4634
71144.46066
61716.84529
52063.15
52063.15
52063.15
52063.15
52063.15
52063.15
52063.15
52063.15
52063.15
52063.15
52063.15
52063.15
52063.15
52063.15
52063.15
52063.15
52063.15
52063.15
52063.15
52063.15
52063.15
52063.15
52063.15
52063.15
52063.15
69160.52755
69498.64828
69840.09116
70184.9056
70533.14194
70884.85099
71240.08525
61765.46776
52063.15
52063.15
52063.15
52063.15
52063.15
52063.15
52063.15
52063.15
52063.15
52063.15
52063.15
52063.15
52063.15
52063.15
52063.15
52063.15
52063.15
52063.15
52063.15
52063.15
52063.15
52063.15
52063.15
52063.15
52063.15
68907.23315
69244.11537
69584.30775
69927.85951
70274.82028
70625.24126
70979.17457
71336.67311
61814.58248
52063.15
52063.15
52063.15
52063.15
52063.15
52063.15
52063.15
52063.15
52063.15
52063.15
52063.15
52063.15
52063.15
52063.15
52063.15
52063.15
52063.15
52063.15
52063.15
52063.15
52063.15
52063.15
52063.15
52063.15
52063.15
68653.93858
68989.58246
69328.52451
69670.81324
70016.49863
70365.63168
70718.26386
71074.4483
71434.23886
61864.19699
52063.15
52063.15
52063.15
52063.15
52063.15
52063.15
52063.15
52063.15
52063.15
52063.15
52063.15
52063.15
52063.15
52063.15
52063.15
52063.15
52063.15
52063.15
52063.15
52063.15
52063.15
52063.15
52063.15
52063.15
52063.15
68400.6441
68735.04981
69072.74119
69413.76706
69758.17724
70106.02201
70457.35317
70812.22359
71170.68663
71532.79743
61914.31897
52063.15
52063.15
52063.15
52063.15
52063.15
52063.15
52063.15
52063.15
52063.15
52063.15
52063.15
52063.15
52063.15
52063.15
52063.15
52063.15
52063.15
52063.15
52063.15
52063.15
52063.15
52063.15
52063.15
52063.15
52063.15
68147.3497
68480.51691
68816.95777
69156.72097
69499.85559
69846.41225
70196.44258
70549.9987
70907.13433
71267.90431
71632.36393
61964.95619
52063.15
52063.15
52063.15
52063.15
52063.15
52063.15
52063.15
52063.15
52063.15
52063.15
52063.15
52063.15
52063.15
52063.15
52063.15
52063.15
52063.15
52063.15
52063.15
52063.15
52063.15
52063.15
52063.15
52063.15
52063.15
67894.05513
68225.984
68561.17453
68899.6747
69241.53394
69586.80267
69935.5318
70287.7738
70643.5822
71003.01106
71366.11611
71732.95427
62016.11667
52063.15
52063.15
52063.15
52063.15
52063.15
52063.15
52063.15
52063.15
52063.15
52063.15
52063.15
52063.15
52063.15
52063.15
52063.15
52063.15
52063.15
52063.15
52063.15
52063.15
52063.15
52063.15
52063.15
52063.15
52063.15
67640.76065
67971.45135
68305.39121
68642.62852
68983.21255
69327.193
69674.62112
70025.54918
70380.02997
70738.11789
71099.86849
71465.33785
71834.58382
62067.80872
52063.15
52063.15
52063.15
52063.15
52063.15
52063.15
52063.15
52063.15
52063.15
52063.15
52063.15
52063.15
52063.15
52063.15
52063.15
52063.15
52063.15
52063.15
52063.15
52063.15
52063.15
52063.15
52063.15
52063.15
52063.15
67387.46625
67716.91845
68049.6078
68385.58243
68724.8909
69067.58324
69413.71053
69763.32428
70116.47765
70473.22482
70833.62059
71197.72138
71565.58482
71937.26916
62120.04023
52063.15
52063.15
52063.15
52063.15
52063.15
52063.15
52063.15
52063.15
52063.15
52063.15
52063.15
52063.15
52063.15
52063.15
52063.15
52063.15
52063.15
52063.15
52063.15
52063.15
52063.15
52063.15
52063.15
52063.15
52063.15
67134.17168
67462.38554
67793.82456
68128.53616
68466.56924
68807.97366
69152.79975
69501.09939
69852.92551
70208.33157
70567.37268
70930.10509
71296.58563
71666.87288
72041.02668
62172.82014
52063.15
52063.15
52063.15
52063.15
52063.15
52063.15
52063.15
52063.15
52063.15
52063.15
52063.15
52063.15
52063.15
52063.15
52063.15
52063.15
52063.15
52063.15
52063.15
52063.15
52063.15
52063.15
52063.15
52063.15
52063.15
66880.87721
67207.85289
67538.04123
67871.48999
68208.24786
68548.364
68891.88907
69238.87477
69589.37328
69943.43841
70301.12506
70662.4887
71027.58652
71396.47689
71769.21882
72145.87316
62226.15708
52063.15
52063.15
52063.15
52063.15
52063.15
52063.15
52063.15
52063.15
52063.15
52063.15
52063.15
52063.15
52063.15
52063.15
52063.15
52063.15
52063.15
52063.15
52063.15
52063.15
52063.15
52063.15
52063.15
52063.15
52063.15
66627.58281
66953.31999
67282.25782
67614.44389
67949.9262
68288.75424
68630.97847
68976.64987
69325.82096
69678.54534
70034.87716
70394.87223
70758.58752
71126.08062
71497.41089
71872.63893
72251.82605
62280.05952
52063.15
52063.15
52063.15
52063.15
52063.15
52063.15
52063.15
52063.15
52063.15
52063.15
52063.15
52063.15
52063.15
52063.15
52063.15
52063.15
52063.15
52063.15
52063.15
52063.15
52063.15
52063.15
52063.15
52063.15
52063.15
66374.28824
66698.78708
67026.47458
67357.39763
67691.60455
68029.14466
68370.0677
68714.42498
69062.26882
69413.65208
69768.62925
70127.25594
70489.58833
70855.68435
71225.60314
71599.4045
71977.15009
72358.90284
62334.53695
52063.15
52063.15
52063.15
52063.15
52063.15
52063.15
52063.15
52063.15
52063.15
52063.15
52063.15
52063.15
52063.15
52063.15
52063.15
52063.15
52063.15
52063.15
52063.15
52063.15
52063.15
52063.15
52063.15
52063.15
52063.15
66120.99376
66444.25443
66770.69126
67100.35145
67433.28316
67769.53499
68109.15702
68452.20035
68798.71659
69148.75892
69502.38163
69859.63955
70220.58922
70585.28835
70953.79529
71326.17017
71702.47441
72082.77014
72467.12141
62389.59857
52063.15
52063.15
52063.15
52063.15
52063.15
52063.15
52063.15
52063.15
52063.15
52063.15
52063.15
52063.15
52063.15
52063.15
52063.15
52063.15
52063.15
52063.15
52063.15
52063.15
52063.15
52063.15
52063.15
52063.15
52063.15
65867.69936
66189.72152
66514.90785
66843.30535
67174.96151
67509.92523
67848.24642
68189.97546
68535.16427
68883.86585
69236.13373
69592.02308
69951.59022
70314.89208
70681.98735
71052.93594
71427.79845
71806.63736
72189.51646
72576.50034
62445.25341
52063.15
52063.15
52063.15
52063.15
52063.15
52063.15
52063.15
52063.15
52063.15
52063.15
52063.15
52063.15
52063.15
52063.15
52063.15
52063.15
52063.15
52063.15
52063.15
52063.15
52063.15
52063.15
52063.15
52063.15
52063.15
65614.40479
65935.18862
66259.1246
66586.25909
66916.63986
67250.31565
67587.33565
67927.75056
68271.61213
68618.9726
68969.88583
69324.40678
69682.59102
70044.49581
70410.1796
70779.70152
71153.12249
71530.50477
71911.91131
72297.40705
72687.05828
62501.51159
52063.15
52063.15
52063.15
52063.15
52063.15
52063.15
52063.15
52063.15
52063.15
52063.15
52063.15
52063.15
52063.15
52063.15
52063.15
52063.15
52063.15
52063.15
52063.15
52063.15
52063.15
52063.15
52063.15
52063.15
52063.15
65361.11031
65680.65597
66003.34128
66329.21292
66658.31847
66990.70599
67326.42497
67665.52594
68008.0599
68354.07944
68703.6382
69056.7904
69413.59192
69774.09982
70138.37175
70506.46718
70878.44682
71254.37207
71634.30625
72018.31404
72406.46088
72798.81428
62558.38291
52063.15
52063.15
52063.15
52063.15
52063.15
52063.15
52063.15
52063.15
52063.15
52063.15
52063.15
52063.15
52063.15
52063.15
52063.15
52063.15
52063.15
52063.15
52063.15
52063.15
52063.15
52063.15
52063.15
52063.15
52063.15
65107.81591
65426.12306
65747.55787
66072.16682
66399.99682
66731.09623
67065.51437
67403.30105
67744.50758
68089.18636
68437.3903
68789.17392
69144.59292
69503.70354
69866.56381
70233.23295
70603.77086
70978.23929
71356.7013
71739.22074
72125.8634
72516.69651
72911.78815
62615.87703
52063.15
52063.15
52063.15
52063.15
52063.15
52063.15
52063.15
52063.15
52063.15
52063.15
52063.15
52063.15
52063.15
52063.15
52063.15
52063.15
52063.15
52063.15
52063.15
52063.15
52063.15
52063.15
52063.15
52063.15
52063.15
64854.52134
65171.59016
65491.77462
65815.12055
66141.67517
66471.48664
66804.6036
67141.07615
67480.95544
67824.29311
68171.1424
68521.55763
68875.59372
69233.30727
69594.75606
69959.99853
70329.0949
70702.10669
71079.09615
71460.12744
71845.26611
72234.57853
72628.13312
73025.9998
62674.00472
52063.15
52063.15
52063.15
52063.15
52063.15
52063.15
52063.15
52063.15
52063.15
52063.15
52063.15
52063.15
52063.15
52063.15
52063.15
52063.15
52063.15
52063.15
52063.15
52063.15
52063.15
52063.15
52063.15
52063.15
52063.15
64601.22687
64917.05751
65235.99131
65558.07438
65883.35378
66211.87698
66543.69292
66878.85153
67217.40322
67559.39995
67904.89477
68253.94125
68606.59463
68962.91128
69322.94822
69686.7642
70054.41922
70425.974
70801.49109
71181.03443
71564.66871
71952.46064
72344.47837
72740.79095
73141.46955
62732.77644
52063.15
52063.15
52063.15
52063.15
52063.15
52063.15
52063.15
52063.15
52063.15
52063.15
52063.15
52063.15
52063.15
52063.15
52063.15
52063.15
52063.15
52063.15
52063.15
52063.15
52063.15
52063.15
52063.15
52063.15
52063.15
64347.93246
64662.5246
64980.20789
65301.02828
65625.03213
65952.26722
66282.78232
66616.62663
66953.8509
67294.50688
67638.64687
67986.32477
68337.59561
68692.51501
69051.14028
69413.52996
69779.74326
70149.84121
70523.88614
70901.94113
71284.07122
71670.34286
72060.82333
72455.58201
72854.6898
73258.21855
62792.20255
52063.15
52063.15
52063.15
52063.15
52063.15
52063.15
52063.15
52063.15
52063.15
52063.15
52063.15
52063.15
52063.15
52063.15
52063.15
52063.15
52063.15
52063.15
52063.15
52063.15
52063.15
52063.15
52063.15
52063.15
52063.15
64094.63789
64407.9917
64724.42464
65043.98201
65366.71047
65692.65763
66021.87155
66354.40174
66690.29875
67029.61362
67372.39897
67718.70848
68068.59642
68422.11874
68779.33252
69140.29554
69505.06731
69873.70862
70246.28099
70622.84783
71003.47393
71388.22488
71777.16829
72170.37328
72567.90984
72969.85017
73376.26806
62852.29451
52063.15
52063.15
52063.15
52063.15
52063.15
52063.15
52063.15
52063.15
52063.15
52063.15
52063.15
52063.15
52063.15
52063.15
52063.15
52063.15
52063.15
52063.15
52063.15
52063.15
52063.15
52063.15
52063.15
52063.15
52063.15
63841.34342
64153.45905
64468.64133
64786.93584
65108.38909
65433.04797
65760.96087
66092.17712
66426.74653
66764.72047
67106.15134
67451.0921
67799.59733
68151.72274
68507.52468
68867.06121
69230.39163
69597.57593
69968.67593
70343.75482
70722.87654
71106.10699
71493.51355
71885.16443
72281.12998
72681.48209
73086.29366
73495.6398
62913.06351
52063.15
52063.15
52063.15
52063.15
52063.15
52063.15
52063.15
52063.15
52063.15
52063.15
52063.15
52063.15
52063.15
52063.15
52063.15
52063.15
52063.15
52063.15
52063.15
52063.15
52063.15
52063.15
52063.15
52063.15
52063.15
63588.04901
63898.92614
64212.85792
64529.88974
64850.06743
65173.43822
65500.05027
65829.95222
66163.19421
66499.82739
66839.90344
67183.47562
67530.59831
67881.32647
68235.71674
68593.82697
68955.71567
69321.44314
69691.07098
70064.66153
70442.27905
70823.98921
71209.85851
71599.95549
71994.35022
72393.11371
72796.31916
73204.04142
73616.35637
62974.52064
52063.15
52063.15
52063.15
52063.15
52063.15
52063.15
52063.15
52063.15
52063.15
52063.15
52063.15
52063.15
52063.15
52063.15
52063.15
52063.15
52063.15
52063.15
52063.15
52063.15
52063.15
52063.15
52063.15
52063.15
52063.15
63334.75444
63644.39323
63957.07466
64272.84347
64591.74578
64913.82863
65239.13949
65567.72733
65899.64206
66234.93414
66573.65554
66915.85933
67261.59912
67610.9302
67963.90899
68320.59255
68681.03971
69045.31054
69413.46583
69785.56823
70161.68176
70541.87123
70926.20347
71314.74675
71707.57027
72104.74533
72506.34487
72912.44281
73323.11537
73738.4405
63036.67815
52063.15
52063.15
52063.15
52063.15
52063.15
52063.15
52063.15
52063.15
52063.15
52063.15
52063.15
52063.15
52063.15
52063.15
52063.15
52063.15
52063.15
52063.15
52063.15
52063.15
52063.15
52063.15
52063.15
52063.15
52063.15
63081.45998
63389.86059
63701.29135
64015.79731
64333.42439
64654.21897
64978.22882
65305.5027
65636.08984
65970.04098
66307.40791
66648.24295
66992.60003
67340.53421
67692.10115
68047.35823
68406.36404
68769.17785
69135.86077
69506.47522
69881.08437
70259.75335
70642.54872
71029.53791
71420.7904
71816.37725
72216.37047
72620.8443
73029.87467
73443.53857
73861.91541
63099.548
52063.15
52063.15
52063.15
52063.15
52063.15
52063.15
52063.15
52063.15
52063.15
52063.15
52063.15
52063.15
52063.15
52063.15
52063.15
52063.15
52063.15
52063.15
52063.15
52063.15
52063.15
52063.15
52063.15
52063.15
52063.15
62828.16556
63135.32768
63445.50794
63758.7512
64075.10274
64394.60921
64717.31822
65043.27781
65372.53752
65705.1479
66041.16001
66380.62647
66723.60101
67070.13793
67420.29321
67774.12399
68131.68808
68493.04507
68858.25582
69227.38192
69600.48688
69977.63557
70358.89369
70744.32897
71134.01065
71528.00887
71926.39598
72329.24591
72736.63366
73148.63656
73565.33368
73986.80529
63163.14209
52063.15
52063.15
52063.15
52063.15
52063.15
52063.15
52063.15
52063.15
52063.15
52063.15
52063.15
52063.15
52063.15
52063.15
52063.15
52063.15
52063.15
52063.15
52063.15
52063.15
52063.15
52063.15
52063.15
52063.15
52063.15
62574.87099
62880.79477
63189.72469
63501.70494
63816.78109
64134.99962
64456.40744
64781.05291
65108.98537
65440.25465
65774.91211
66113.01017
66454.60182
66799.74166
67148.48545
67500.88956
67857.01212
68216.91247
68580.65067
68948.28862
69319.88958
69695.51759
70075.23865
70459.12023
70847.23069
71239.6405
71636.42169
72037.64731
72443.39266
72853.73476
73268.75174
73688.52416
74113.13445
63227.4735
52063.15
52063.15
52063.15
52063.15
52063.15
52063.15
52063.15
52063.15
52063.15
52063.15
52063.15
52063.15
52063.15
52063.15
52063.15
52063.15
52063.15
52063.15
52063.15
52063.15
52063.15
52063.15
52063.15
52063.15
52063.15
62321.57653
62626.26213
62933.94138
63244.65877
63558.4597
63875.38996
64195.49677
64518.82829
64845.43316
65175.3615
65508.66448
65845.3938
66185.60273
66529.34567
66876.67761
67227.65524
67582.33644
67940.77978
68303.04562
68669.19561
69039.29219
69413.39971
69791.5839
70173.91139
70560.45083
70951.27241
71346.44729
71746.0488
72150.15196
72558.83284
72972.16989
73390.24334
73813.13465
74240.9278
63292.55506
52063.15
52063.15
52063.15
52063.15
52063.15
52063.15
52063.15
52063.15
52063.15
52063.15
52063.15
52063.15
52063.15
52063.15
52063.15
52063.15
52063.15
52063.15
52063.15
52063.15
52063.15
52063.15
52063.15
52063.15
52063.15
62068.28211
62371.72922
62678.15796
62987.61266
63300.13805
63615.78021
63934.58616
64256.6034
64581.88084
64910.46842
65242.41658
65577.77732
65916.60371
66258.9494
66604.86967
66954.421
67307.66048
67664.64699
68025.44065
68390.10232
68758.69471
69131.28192
69507.92886
69888.70245
70273.67107
70662.90404
71056.47279
71454.45041
71856.91096
72263.93083
72675.58816
73091.96222
73513.13476
73939.18944
74370.21119
63358.39953
52063.15
52063.15
52063.15
52063.15
52063.15
52063.15
52063.15
52063.15
52063.15
52063.15
52063.15
52063.15
52063.15
52063.15
52063.15
52063.15
52063.15
52063.15
52063.15
52063.15
52063.15
52063.15
52063.15
52063.15
52063.15
61814.98755
62117.19631
62422.37471
62730.5664
63041.81639
63356.17061
63673.67539
63994.3785
64318.32868
64645.57516
64976.16868
65310.16102
65647.60452
65988.55312
66333.06191
66681.18657
67032.98452
67388.51439
67747.8355
68111.00902
68478.09741
68849.16394
69224.27383
69603.49371
69986.89112
70374.53566
70766.4985
71162.8518
71563.66995
71969.02903
72379.00621
72793.68109
73213.13509
73637.45086
74066.71366
74501.01072
63425.02092
52063.15
52063.15
52063.15
52063.15
52063.15
52063.15
52063.15
52063.15
52063.15
52063.15
52063.15
52063.15
52063.15
52063.15
52063.15
52063.15
52063.15
52063.15
52063.15
52063.15
52063.15
52063.15
52063.15
52063.15
52063.15
61561.69308
61862.66367
62166.5914
62473.52024
62783.49501
63096.56096
63412.76472
63732.15388
64054.77647
64380.68201
64709.92105
65042.54465
65378.60543
65718.15713
66061.25407
66407.95225
66758.30885
67112.38171
67470.23046
67831.91601
68197.50002
68567.04606
68940.61908
69318.28487
69700.11126
70086.16758
70476.5241
70871.2533
71270.42925
71674.12711
72082.42436
72495.40027
72913.13529
73335.71238
73763.21644
74195.73369
74633.35307
63492.43298
52063.15
52063.15
52063.15
52063.15
52063.15
52063.15
52063.15
52063.15
52063.15
52063.15
52063.15
52063.15
52063.15
52063.15
52063.15
52063.15
52063.15
52063.15
52063.15
52063.15
52063.15
52063.15
52063.15
52063.15
52063.15
61308.39867
61608.13076
61910.80799
62216.47413
62525.17335
62836.9512
63151.85411
63469.92898
63791.22415
64115.78893
64443.67315
64774.92817
65109.60641
65447.76086
65789.44614
66134.71801
66483.63289
66836.24892
67192.62549
67552.82271
67916.90253
68284.92827
68656.96404
69033.07593
69413.3315
69797.7992
70186.54961
70579.6549
70977.18825
71379.2251
71785.84263
72197.11914
72613.1354
73033.97402
73459.7189
73890.45657
74326.2756
74767.26598
63560.64943
52063.15
52063.15
52063.15
52063.15
52063.15
52063.15
52063.15
52063.15
52063.15
52063.15
52063.15
52063.15
52063.15
52063.15
52063.15
52063.15
52063.15
52063.15
52063.15
52063.15
52063.15
52063.15
52063.15
52063.15
52063.15
61055.1041
61353.59785
61655.02473
61959.42786
62266.8517
62577.3416
62890.94334
63207.70409
63527.67199
63850.89568
64177.42525
64507.31187
64840.60722
65177.36459
65517.63837
65861.48359
66208.95693
66560.11632
66915.02034
67273.72941
67636.30523
68002.81029
68373.309
68747.86719
69126.55154
69509.43082
69896.57532
70288.0563
70683.94724
71084.32329
71489.26068
71898.83802
72313.13572
72732.23544
73156.22137
73585.17967
74019.1979
74458.36633
74902.77742
63629.68528
52063.15
52063.15
52063.15
52063.15
52063.15
52063.15
52063.15
52063.15
52063.15
52063.15
52063.15
52063.15
52063.15
52063.15
52063.15
52063.15
52063.15
52063.15
52063.15
52063.15
52063.15
52063.15
52063.15
52063.15
52063.15
60801.80964
61099.06521
61399.24142
61702.3817
62008.53031
62317.73195
62630.03267
62945.47946
63264.11978
63586.00253
63911.17762
64239.6955
64571.60813
64906.96859
65245.83054
65588.24927
65934.28126
66283.98363
66637.4153
66994.6364
67355.70785
67720.69242
68089.65426
68462.65835
68839.77168
69221.06274
69606.60092
69996.4578
70390.70654
70789.42138
71192.67883
71600.5572
72013.13593
72430.49696
72852.72414
73279.90264
73712.12029
74149.46701
74592.03418
75039.91606
63699.5553
52063.15
52063.15
52063.15
52063.15
52063.15
52063.15
52063.15
52063.15
52063.15
52063.15
52063.15
52063.15
52063.15
52063.15
52063.15
52063.15
52063.15
52063.15
52063.15
52063.15
52063.15
52063.15
52063.15
52063.15
52063.15
60548.51522
60844.5323
61143.45801
61445.33559
61750.20866
62058.12219
62369.12206
62683.25457
63000.56746
63321.10944
63644.92972
63972.07902
64302.60911
64636.57232
64974.0226
65315.01502
65659.6053
66007.85085
66359.81033
66715.5431
67075.11036
67438.57463
67805.99922
68177.44941
68552.99192
68932.69436
69316.62643
69704.8594
70097.46554
70494.51936
70896.0971
71302.27607
71713.13603
72128.75859
72549.22661
72974.62552
73405.04282
73840.56736
74281.29084
74727.30712
75178.71167
63770.27426
52063.15
52063.15
52063.15
52063.15
52063.15
52063.15
52063.15
52063.15
52063.15
52063.15
52063.15
52063.15
52063.15
52063.15
52063.15
52063.15
52063.15
52063.15
52063.15
52063.15
52063.15
52063.15
52063.15
52063.15
52063.15
60295.22065
60589.99939
60887.67475
61188.28932
61491.88701
61798.5126
62108.21129
62421.02968
62737.01531
63056.21619
63378.68182
63704.46271
64033.60992
64366.17605
64702.21484
65041.7806
65384.92934
65731.71824
66082.20518
66436.44981
66794.51306
67156.45665
67522.34418
67892.24066
68266.21196
68644.32598
69026.65213
69413.26079
69804.22453
70199.61756
70599.51515
71003.99494
71413.13636
71827.02002
72245.72907
72669.34862
73097.96512
73531.66772
73970.54773
74414.69795
74864.21412
75319.19431
63841.85824
52063.15
52063.15
52063.15
52063.15
52063.15
52063.15
52063.15
52063.15
52063.15
52063.15
52063.15
52063.15
52063.15
52063.15
52063.15
52063.15
52063.15
52063.15
52063.15
52063.15
52063.15
52063.15
52063.15
52063.15
52063.15
60041.92619
60335.46675
60631.89145
60931.24316
61233.56562
61538.90295
61847.30062
62158.80505
62473.46309
62791.32304
63112.43419
63436.84635
63764.61083
64095.78006
64430.407
64768.54628
65110.25366
65455.58556
65804.60014
66157.3568
66513.91568
66874.33877
67238.68943
67607.03183
67979.43211
68355.9579
68736.67774
69121.66229
69510.98383
69904.71564
70302.9333
70705.71412
71113.13656
71525.28154
71942.23185
72364.0716
72790.88751
73222.7684
73659.80449
74102.08888
74549.7169
75002.78553
75461.39479
63914.32315
52063.15
52063.15
52063.15
52063.15
52063.15
52063.15
52063.15
52063.15
52063.15
52063.15
52063.15
52063.15
52063.15
52063.15
52063.15
52063.15
52063.15
52063.15
52063.15
52063.15
52063.15
52063.15
52063.15
52063.15
52063.15
59788.63177
60080.93384
60376.10803
60674.19705
60975.24397
61279.29319
61586.39001
61896.58016
62209.91077
62526.42996
62846.18629
63169.22987
63495.61181
63825.38379
64158.59906
64495.31203
64835.5777
65179.45277
65526.99517
65878.2635
66233.31819
66592.22098
66955.0344
67321.82289
67692.65234
68067.58952
68446.70324
68830.06389
69217.74283
69609.81363
70006.35157
70407.433
70813.13667
71223.54317
71638.73431
72058.79448
72483.81004
72913.86875
73349.06115
73789.47993
74235.21936
74686.37665
75143.05145
75605.3451
63987.68488
52063.15
52063.15
52063.15
52063.15
52063.15
52063.15
52063.15
52063.15
52063.15
52063.15
52063.15
52063.15
52063.15
52063.15
52063.15
52063.15
52063.15
52063.15
52063.15
52063.15
52063.15
52063.15
52063.15
52063.15
52063.15
59535.3372
59826.40093
60120.32477
60417.15078
60716.92232
61019.68359
61325.47923
61634.35526
61946.35862
62261.5367
62579.93839
62901.61356
63226.61262
63554.98751
63886.7913
64222.07761
64560.90174
64903.32017
65249.39002
65599.1702
65952.72089
66310.103
66671.37936
67036.61414
67405.87239
67779.22114
68156.72894
68538.46529
68924.50182
69314.91182
69709.76962
70109.15187
70513.13699
70921.80459
71335.23678
71753.51757
72176.73234
72604.96911
73038.31804
73476.87076
73920.72181
74369.96801
74824.70787
75285.04301
75751.07759
64061.96073
52063.15
52063.15
52063.15
52063.15
52063.15
52063.15
52063.15
52063.15
52063.15
52063.15
52063.15
52063.15
52063.15
52063.15
52063.15
52063.15
52063.15
52063.15
52063.15
52063.15
52063.15
52063.15
52063.15
52063.15
52063.15
59282.04274
59571.86829
59864.54147
60160.10463
60458.60093
60760.07394
61064.56857
61372.13064
61682.80641
61996.64356
62313.69077
62633.9972
62957.61353
63284.59152
63614.98347
63948.8433
64286.22607
64627.18749
64971.78498
65320.07719
65672.1235
66027.98513
66387.72461
66751.40531
67119.09254
67490.85306
67866.75455
68246.86679
68631.26112
69020.00991
69413.18778
69810.87105
70213.1372
70620.06612
71031.73956
71448.24055
71869.65474
72296.06978
72727.5748
73164.26169
73606.22459
74053.55923
74506.36439
74964.74126
75428.79284
75898.62541
64137.16782
52063.15
52063.15
52063.15
52063.15
52063.15
52063.15
52063.15
52063.15
52063.15
52063.15
52063.15
52063.15
52063.15
52063.15
52063.15
52063.15
52063.15
52063.15
52063.15
52063.15
52063.15
52063.15
52063.15
52063.15
52063.15
59028.74832
59317.33538
59608.75806
59903.05851
60200.27928
60500.46418
60803.65796
61109.90575
61419.25409
61731.75047
62047.44286
62366.38072
62688.61451
63014.19525
63343.17553
63675.60905
64011.55011
64351.0547
64694.18001
65040.98389
65391.52602
65745.86733
66104.06957
66466.19637
66832.31277
67202.48468
67576.78006
67955.26839
68338.02012
68725.1079
69116.60604
69512.58992
69913.13731
70318.32775
70728.24202
71142.96343
71562.57725
71987.17014
72416.83146
72851.65275
73291.72704
73737.15036
74188.02105
74644.43917
75106.508
75574.33336
76048.02301
64213.32328
52063.15
52063.15
52063.15
52063.15
52063.15
52063.15
52063.15
52063.15
52063.15
52063.15
52063.15
52063.15
52063.15
52063.15
52063.15
52063.15
52063.15
52063.15
52063.15
52063.15
52063.15
52063.15
52063.15
52063.15
52063.15
58775.45375
59062.80247
59352.97479
59646.01225
59941.95762
60240.85458
60542.74718
60847.68085
61155.70193
61466.85722
61781.19496
62098.76441
62419.61532
62743.79898
63071.36776
63402.37462
63736.87415
64074.92209
64416.57486
64761.89059
65110.92871
65463.74936
65820.41454
66180.98762
66545.53281
66914.1163
67286.80576
67663.66978
68044.77912
68430.20609
68820.02409
69214.3088
69613.13763
70016.58917
70424.74448
70837.68652
71255.49956
71678.2705
72106.08835
72539.04358
72977.2295
73420.74171
73869.67747
74324.13709
74784.2234
75250.04107
75721.69809
76199.30523
64290.44574
52063.15
52063.15
52063.15
52063.15
52063.15
52063.15
52063.15
52063.15
52063.15
52063.15
52063.15
52063.15
52063.15
52063.15
52063.15
52063.15
52063.15
52063.15
52063.15
52063.15
52063.15
52063.15
52063.15
52063.15
52063.15
58522.15964
58808.26982
59097.19149
59388.96609
59683.63624
59981.24493
60281.83652
60585.45623
60892.14972
61201.96408
61514.94734
61831.14804
62150.61623
62473.40298
62799.55993
63129.14031
63462.19847
63798.78941
64138.96982
64482.79758
64830.33133
65181.63148
65536.75979
65895.77879
66258.75296
66625.74822
66996.83137
67372.07129
67751.53841
68135.30418
68523.44225
68916.02798
69313.13784
69714.8507
70121.24726
70532.4095
70948.42196
71369.37117
71795.34511
72226.4345
72662.73228
73104.33294
73551.33399
74003.83534
74461.93866
74925.74886
75395.37351
75870.92214
76352.50779
64368.55365
52063.15
52063.15
52063.15
52063.15
52063.15
52063.15
52063.15
52063.15
52063.15
52063.15
52063.15
52063.15
52063.15
52063.15
52063.15
52063.15
52063.15
52063.15
52063.15
52063.15
52063.15
52063.15
52063.15
52063.15
52063.15