/*--------------------------------*- C++ -*----------------------------------*\
  =========                 |
  \\      /  F ield         | OpenFOAM: The Open Source CFD Toolbox
   \\    /   O peration     | Website:  https://openfoam.org
    \\  /    A nd           | Version:  9
     \\/     M anipulation  |
\*---------------------------------------------------------------------------*/
FoamFile
{
    format      ascii;
    class       volScalarField;
    location    "0";
    object      Uy;
}
// * * * * * * * * * * * * * * * * * * * * * * * * * * * * * * * * * * * * * //

dimensions      [0 1 -1 0 0 0 0];

internalField   uniform 0;

boundaryField
{
    inlet
    {
        type            calculated;
        value           uniform 0;
    }
    sym
    {
        type            calculated;
        value           uniform 0;
    }
    wedge
    {
        type            calculated;
        value           nonuniform List<scalar> 
50
(
334.6764421
334.6764421
334.6764421
334.6764421
334.6764421
334.6764421
334.6764421
334.6764421
334.6764421
334.6764421
334.6764421
334.6764421
334.6764421
334.6764421
334.6764421
334.6764421
334.6764421
334.6764421
334.6764421
334.6764421
334.6764421
334.6764421
334.6764421
334.6764421
334.6764421
334.6764421
334.6764421
334.6764421
334.6764421
334.6764421
334.6764421
334.6764421
334.6764421
334.6764421
334.6764421
334.6764421
334.6764421
334.6764421
334.6764421
334.6764421
334.6764421
334.6764421
334.6764421
334.6764421
334.6764421
334.6764421
334.6764421
334.6764421
334.6764421
334.6764421
)
;
    }
    top
    {
        type            calculated;
        value           uniform 0;
    }
    back
    {
        type            empty;
    }
    front
    {
        type            empty;
    }
    outlet
    {
        type            calculated;
        value           uniform 0;
    }
}


// ************************************************************************* //
